 VARIABLES=   X    Y
   ZONE  I= 201    F=POINT
           1.0000000000         0.0000000713
           0.9995069504        -0.0000645907
           0.9984357953        -0.0002051335
           0.9967982173        -0.0004201797
           0.9946060777        -0.0007085333
           0.9918712378        -0.0010692988
           0.9886054993        -0.0015020007
           0.9848207235        -0.0020065259
           0.9805286527        -0.0025831375
           0.9757411480        -0.0032321946
           0.9704700112        -0.0039539495
           0.9647270441        -0.0047481949
           0.9585241675        -0.0056137559
           0.9518731236        -0.0065482832
           0.9447857141        -0.0075478316
           0.9372738004        -0.0086067636
           0.9293491244        -0.0097177876
           0.9210236073        -0.0108721666
           0.9123090506        -0.0120600965
           0.9032172561        -0.0132713644
           0.8937600255        -0.0144958673
           0.8839492202        -0.0157243684
           0.8737965226        -0.0169490613
           0.8633139729        -0.0181639288
           0.8525132537        -0.0193651412
           0.8414062858        -0.0205509569
           0.8300047517        -0.0217215940
           0.8183205128        -0.0228788182
           0.8063654900        -0.0240254737
           0.7941513062        -0.0251649246
           0.7816900015        -0.0263004359
           0.7689932585        -0.0274348333
           0.7560729980        -0.0285699796
           0.7429409027        -0.0297066793
           0.7296089530        -0.0308445320
           0.7160887122        -0.0319820121
           0.7023922801        -0.0331165753
           0.6885313988        -0.0342449248
           0.6745178699        -0.0353631228
           0.6603634357        -0.0364669971
           0.6460800171        -0.0375521630
           0.6316793561        -0.0386143439
           0.6171733141        -0.0396493971
           0.6025738120        -0.0406534933
           0.5878924727        -0.0416231379
           0.5731412768        -0.0425552130
           0.5583319664        -0.0434469618
           0.5434762836        -0.0442960784
           0.5285862088        -0.0451006182
           0.5136735439        -0.0458590761
           0.4987500012        -0.0465703011
           0.4838275015        -0.0472335070
           0.4689177573        -0.0478482731
           0.4540326893        -0.0484145023
           0.4391840994        -0.0489323959
           0.4243837297        -0.0494024195
           0.4096435308        -0.0498252660
           0.3949752152        -0.0502017774
           0.3803906143        -0.0505329669
           0.3659016192        -0.0508198440
           0.3515200019        -0.0510634892
           0.3372575641        -0.0512648784
           0.3231261671        -0.0514249243
           0.3091376126        -0.0515443310
           0.2953037024        -0.0516235754
           0.2816362381        -0.0516628399
           0.2681471407        -0.0516619869
           0.2548481226        -0.0516204946
           0.2417510301        -0.0515374020
           0.2288677394        -0.0514112450
           0.2162100226        -0.0512400642
           0.2037896663        -0.0510213673
           0.1916185617        -0.0507520474
           0.1797085106        -0.0504284427
           0.1680712700        -0.0500462167
           0.1567187458        -0.0496004261
           0.1456627101        -0.0490855016
           0.1349150091        -0.0484952852
           0.1244874373        -0.0478229932
           0.1143918261        -0.0470613800
           0.1046400070        -0.0462027229
           0.0952437669        -0.0452389829
           0.0862149671        -0.0441618860
           0.0775653943        -0.0429631062
           0.0693068802        -0.0416344479
           0.0614512563        -0.0401680619
           0.0540103205        -0.0385566279
           0.0469959080        -0.0367936417
           0.0404198393        -0.0348736607
           0.0342939310        -0.0327925272
           0.0286300015        -0.0305476580
           0.0234398711        -0.0281382557
           0.0187353585        -0.0255655926
           0.0145282904        -0.0228332020
           0.0108304797        -0.0199471414
           0.0076537505        -0.0169162732
           0.0050099199        -0.0137526914
           0.0029108098        -0.0104724625
           0.0013682400        -0.0070972862
           0.0003940300        -0.0036586307
           0.0000000000         0.0000000000
           0.0003940300         0.0054160701
           0.0013682400         0.0095015876
           0.0029108098         0.0134107238
           0.0050099199         0.0172016360
           0.0076537505         0.0209006239
           0.0108304797         0.0245239995
           0.0145282904         0.0280831102
           0.0187353585         0.0315860063
           0.0234398711         0.0350380652
           0.0286300015         0.0384423696
           0.0342939310         0.0417998433
           0.0404198393         0.0451093875
           0.0469959080         0.0483680405
           0.0540103205         0.0515711345
           0.0614512563         0.0547124706
           0.0693068802         0.0577845499
           0.0775653943         0.0607788563
           0.0862149671         0.0636860430
           0.0952437669         0.0664962381
           0.1046400070         0.0691993088
           0.1143918261         0.0717850849
           0.1244874373         0.0742436424
           0.1349150091         0.0765654147
           0.1456627101         0.0787415504
           0.1567187458         0.0807638392
           0.1680712700         0.0826250836
           0.1797085106         0.0843190476
           0.1916185617         0.0858405530
           0.2037896663         0.0871856362
           0.2162100226         0.0883514956
           0.2288677394         0.0893364549
           0.2417510301         0.0901400894
           0.2548481226         0.0907631293
           0.2681471407         0.0912073851
           0.2816362381         0.0914757401
           0.2953037024         0.0915720537
           0.3091376126         0.0915010795
           0.3231261671         0.0912684426
           0.3372575641         0.0908803567
           0.3515200019         0.0903437883
           0.3659016192         0.0896660537
           0.3803906143         0.0888549313
           0.3949752152         0.0879184157
           0.4096435308         0.0868647546
           0.4243837297         0.0857021362
           0.4391840994         0.0844387561
           0.4540326893         0.0830827281
           0.4689177573         0.0816419497
           0.4838275015         0.0801239684
           0.4987500012         0.0785360709
           0.5136735439         0.0768851563
           0.5285862088         0.0751777291
           0.5434762836         0.0734197870
           0.5583319664         0.0716168880
           0.5731412768         0.0697741136
           0.5878924727         0.0678960234
           0.6025738120         0.0659866482
           0.6171733141         0.0640495718
           0.6316793561         0.0620878004
           0.6460800171         0.0601039045
           0.6603634357         0.0581000298
           0.6745178699         0.0560779683
           0.6885313988         0.0540392585
           0.7023922801         0.0519853383
           0.7160887122         0.0499176830
           0.7296089530         0.0478380471
           0.7429409027         0.0457486399
           0.7560729980         0.0436522886
           0.7689932585         0.0415526256
           0.7816900015         0.0394541547
           0.7941513062         0.0373623036
           0.8063654900         0.0352832265
           0.8183205128         0.0332238115
           0.8300047517         0.0311911497
           0.8414062858         0.0291924272
           0.8525132537         0.0272344369
           0.8633139729         0.0253232643
           0.8737965226         0.0234640464
           0.8839492202         0.0216607172
           0.8937600255         0.0199161395
           0.9032172561         0.0182319842
           0.9123090506         0.0166090913
           0.9210236073         0.0150477458
           0.9293491244         0.0135479849
           0.9372738004         0.0121100508
           0.9447857141         0.0107346475
           0.9518731236         0.0094231926
           0.9585241675         0.0081779771
           0.9647270441         0.0070021939
           0.9704700112         0.0058997935
           0.9757411480         0.0048754793
           0.9805286527         0.0039343098
           0.9848207235         0.0030815925
           0.9886054993         0.0023226661
           0.9918712378         0.0016626206
           0.9946060777         0.0011062889
           0.9967982173         0.0006580645
           0.9984357953         0.0003219531
           0.9995069504         0.0001015299
           1.0000000000        -0.0000000716
