 VARIABLES=   X    Y
   ZONE  I= 201    F=POINT
           1.0000000000         0.0000000715
           0.9995069504        -0.0000908223
           0.9984357953        -0.0002880978
           0.9967982173        -0.0005891480
           0.9946060777        -0.0009911180
           0.9918712378        -0.0014909483
           0.9886054993        -0.0020854401
           0.9848207235        -0.0027711929
           0.9805286527        -0.0035447255
           0.9757411480        -0.0044023795
           0.9704700112        -0.0053404318
           0.9647270441        -0.0063551152
           0.9585241675        -0.0074425149
           0.9518731236        -0.0085987691
           0.9447857141        -0.0098199397
           0.9372738004        -0.0111020850
           0.9293491244        -0.0124412831
           0.9210236073        -0.0138336234
           0.9123090506        -0.0152751924
           0.9032172561        -0.0167621728
           0.8937600255        -0.0182907302
           0.8839492202        -0.0198571105
           0.8737965226        -0.0214576386
           0.8633139729        -0.0230886173
           0.8525132537        -0.0247464851
           0.8414062858        -0.0264277123
           0.8300047517        -0.0281288307
           0.8183205128        -0.0298464224
           0.8063654900        -0.0315771028
           0.7941513062        -0.0333175957
           0.7816900015        -0.0350645706
           0.7689932585        -0.0368148386
           0.7560729980        -0.0385651551
           0.7429409027        -0.0403123535
           0.7296089530        -0.0420532525
           0.7160887122        -0.0437847003
           0.7023922801        -0.0455035232
           0.6885313988        -0.0472065508
           0.6745178699        -0.0488906167
           0.6603634357        -0.0505525172
           0.6460800171        -0.0521890260
           0.6316793561        -0.0537968948
           0.6171733141        -0.0553728342
           0.6025738120        -0.0569135211
           0.5878924727        -0.0584156141
           0.5731412768        -0.0598757081
           0.5583319664        -0.0612903647
           0.5434762836        -0.0626561195
           0.5285862088        -0.0639694631
           0.5136735439        -0.0652268603
           0.4987500012        -0.0664247796
           0.4838275015        -0.0675596148
           0.4689177573        -0.0686278120
           0.4540326893        -0.0696257725
           0.4391840994        -0.0705499351
           0.4243837297        -0.0713967755
           0.4096435308        -0.0721627623
           0.3949752152        -0.0728444457
           0.3803906143        -0.0734384507
           0.3659016192        -0.0739414543
           0.3515200019        -0.0743502453
           0.3372575641        -0.0746617168
           0.3231261671        -0.0748729184
           0.3091376126        -0.0749810040
           0.2953037024        -0.0749833286
           0.2816362381        -0.0748773888
           0.2681471407        -0.0746608973
           0.2548481226        -0.0743317679
           0.2417510301        -0.0738881603
           0.2288677394        -0.0733284205
           0.2162100226        -0.0726511776
           0.2037896663        -0.0718553141
           0.1916185617        -0.0709399655
           0.1797085106        -0.0699045509
           0.1680712700        -0.0687487423
           0.1567187458        -0.0674725249
           0.1456627101        -0.0660761148
           0.1349150091        -0.0645600408
           0.1244874373        -0.0629250780
           0.1143918261        -0.0611722581
           0.1046400070        -0.0593028888
           0.0952437669        -0.0573184751
           0.0862149671        -0.0552207604
           0.0775653943        -0.0530116744
           0.0693068802        -0.0506933257
           0.0614512563        -0.0482679754
           0.0540103205        -0.0457379781
           0.0469959080        -0.0431057997
           0.0404198393        -0.0403739512
           0.0342939310        -0.0375449471
           0.0286300015        -0.0346212834
           0.0234398711        -0.0316053778
           0.0187353585        -0.0284995381
           0.0145282904        -0.0253059007
           0.0108304797        -0.0220263656
           0.0076537505        -0.0186625160
           0.0050099199        -0.0152154807
           0.0029108098        -0.0116856312
           0.0013682400        -0.0080715157
           0.0003940300        -0.0043635890
           0.0000000000         0.0000000000
           0.0003940300         0.0043635890
           0.0013682400         0.0080715157
           0.0029108098         0.0116856312
           0.0050099199         0.0152154807
           0.0076537505         0.0186625160
           0.0108304797         0.0220263656
           0.0145282904         0.0253059007
           0.0187353585         0.0284995381
           0.0234398711         0.0316053778
           0.0286300015         0.0346212834
           0.0342939310         0.0375449471
           0.0404198393         0.0403739512
           0.0469959080         0.0431057997
           0.0540103205         0.0457379781
           0.0614512563         0.0482679754
           0.0693068802         0.0506933257
           0.0775653943         0.0530116744
           0.0862149671         0.0552207604
           0.0952437669         0.0573184751
           0.1046400070         0.0593028888
           0.1143918261         0.0611722581
           0.1244874373         0.0629250780
           0.1349150091         0.0645600408
           0.1456627101         0.0660761148
           0.1567187458         0.0674725249
           0.1680712700         0.0687487423
           0.1797085106         0.0699045509
           0.1916185617         0.0709399655
           0.2037896663         0.0718553141
           0.2162100226         0.0726511776
           0.2288677394         0.0733284205
           0.2417510301         0.0738881603
           0.2548481226         0.0743317679
           0.2681471407         0.0746608973
           0.2816362381         0.0748773888
           0.2953037024         0.0749833286
           0.3091376126         0.0749810040
           0.3231261671         0.0748729184
           0.3372575641         0.0746617168
           0.3515200019         0.0743502453
           0.3659016192         0.0739414543
           0.3803906143         0.0734384507
           0.3949752152         0.0728444457
           0.4096435308         0.0721627623
           0.4243837297         0.0713967755
           0.4391840994         0.0705499351
           0.4540326893         0.0696257725
           0.4689177573         0.0686278120
           0.4838275015         0.0675596148
           0.4987500012         0.0664247796
           0.5136735439         0.0652268603
           0.5285862088         0.0639694631
           0.5434762836         0.0626561195
           0.5583319664         0.0612903647
           0.5731412768         0.0598757081
           0.5878924727         0.0584156141
           0.6025738120         0.0569135211
           0.6171733141         0.0553728342
           0.6316793561         0.0537968948
           0.6460800171         0.0521890260
           0.6603634357         0.0505525172
           0.6745178699         0.0488906167
           0.6885313988         0.0472065508
           0.7023922801         0.0455035232
           0.7160887122         0.0437847003
           0.7296089530         0.0420532525
           0.7429409027         0.0403123535
           0.7560729980         0.0385651551
           0.7689932585         0.0368148386
           0.7816900015         0.0350645706
           0.7941513062         0.0333175957
           0.8063654900         0.0315771028
           0.8183205128         0.0298464224
           0.8300047517         0.0281288307
           0.8414062858         0.0264277123
           0.8525132537         0.0247464851
           0.8633139729         0.0230886173
           0.8737965226         0.0214576386
           0.8839492202         0.0198571105
           0.8937600255         0.0182907302
           0.9032172561         0.0167621728
           0.9123090506         0.0152751924
           0.9210236073         0.0138336234
           0.9293491244         0.0124412831
           0.9372738004         0.0111020850
           0.9447857141         0.0098199397
           0.9518731236         0.0085987691
           0.9585241675         0.0074425149
           0.9647270441         0.0063551152
           0.9704700112         0.0053404318
           0.9757411480         0.0044023795
           0.9805286527         0.0035447255
           0.9848207235         0.0027711929
           0.9886054993         0.0020854401
           0.9918712378         0.0014909483
           0.9946060777         0.0009911180
           0.9967982173         0.0005891480
           0.9984357953         0.0002880978
           0.9995069504         0.0000908223
           1.0000000000        -0.0000000715
