 VARIABLES=   X    Y
   ZONE  I= 201    F=POINT
           1.0000000000         0.0000000714
           0.9995069504        -0.0000830603
           0.9984357953        -0.0002635434
           0.9967982173        -0.0005391221
           0.9946060777        -0.0009074112
           0.9918712378        -0.0013659595
           0.9886054993        -0.0019123338
           0.9848207235        -0.0025440590
           0.9805286527        -0.0032587238
           0.9757411480        -0.0040538372
           0.9704700112        -0.0049268710
           0.9647270441        -0.0058751949
           0.9585241675        -0.0068958672
           0.9518731236        -0.0079857372
           0.9447857141        -0.0091412393
           0.9372738004        -0.0103584081
           0.9293491244        -0.0116328867
           0.9210236073        -0.0129599562
           0.9123090506        -0.0143345939
           0.9032172561        -0.0157516748
           0.8937600255        -0.0172060039
           0.8839492202        -0.0186925419
           0.8737965226        -0.0202065520
           0.8633139729        -0.0217436031
           0.8525132537        -0.0232997891
           0.8414062858        -0.0248716902
           0.8300047517        -0.0264563728
           0.8183205128        -0.0280513149
           0.8063654900        -0.0296543539
           0.7941513062        -0.0312636197
           0.7816900015        -0.0328772962
           0.7689932585        -0.0344937332
           0.7560729980        -0.0361111350
           0.7429409027        -0.0377276614
           0.7296089530        -0.0393412896
           0.7160887122        -0.0409498513
           0.7023922801        -0.0425509587
           0.6885313988        -0.0441420861
           0.6745178699        -0.0457205437
           0.6603634357        -0.0472835079
           0.6460800171        -0.0488280356
           0.6316793561        -0.0503510684
           0.6171733141        -0.0518494844
           0.6025738120        -0.0533200763
           0.5878924727        -0.0547595806
           0.5731412768        -0.0561646670
           0.5583319664        -0.0575319268
           0.5434762836        -0.0588579327
           0.5285862088        -0.0601391830
           0.5136735439        -0.0613721125
           0.4987500012        -0.0625531897
           0.4838275015        -0.0636787415
           0.4689177573        -0.0647451058
           0.4540326893        -0.0657486096
           0.4391840994        -0.0666855723
           0.4243837297        -0.0675522685
           0.4096435308        -0.0683450103
           0.3949752152        -0.0690600947
           0.3803906143        -0.0696939528
           0.3659016192        -0.0702429488
           0.3515200019        -0.0707036406
           0.3372575641        -0.0710726306
           0.3231261671        -0.0713466778
           0.3091376126        -0.0715226978
           0.2953037024        -0.0715978071
           0.2816362381        -0.0715692788
           0.2681471407        -0.0714346990
           0.2548481226        -0.0711918026
           0.2417510301        -0.0708387494
           0.2288677394        -0.0703738555
           0.2162100226        -0.0697957948
           0.2037896663        -0.0691035166
           0.1916185617        -0.0682963133
           0.1797085106        -0.0673737451
           0.1680712700        -0.0663356557
           0.1567187458        -0.0651821420
           0.1456627101        -0.0639135316
           0.1349150091        -0.0625303537
           0.1244874373        -0.0610333197
           0.1143918261        -0.0594232343
           0.1046400070        -0.0577010140
           0.0952437669        -0.0558676124
           0.0862149671        -0.0539239645
           0.0775653943        -0.0518709794
           0.0693068802        -0.0497094989
           0.0614512563        -0.0474402644
           0.0540103205        -0.0450638793
           0.0469959080        -0.0425808392
           0.0404198393        -0.0399915278
           0.0342939310        -0.0372961946
           0.0286300015        -0.0344950221
           0.0234398711        -0.0315881632
           0.0187353585        -0.0285757985
           0.0145282904        -0.0254581552
           0.0108304797        -0.0222355705
           0.0076537505        -0.0189084485
           0.0050099199        -0.0154771646
           0.0029108098        -0.0119415931
           0.0013682400        -0.0082994364
           0.0003940300        -0.0045373505
           0.0000000000         0.0000000000
           0.0003940300         0.0045373505
           0.0013682400         0.0082994364
           0.0029108098         0.0119415931
           0.0050099199         0.0154771646
           0.0076537505         0.0189084485
           0.0108304797         0.0222355705
           0.0145282904         0.0254581552
           0.0187353585         0.0285757985
           0.0234398711         0.0315881632
           0.0286300015         0.0344950221
           0.0342939310         0.0372961946
           0.0404198393         0.0399915278
           0.0469959080         0.0425808392
           0.0540103205         0.0450638793
           0.0614512563         0.0474402644
           0.0693068802         0.0497094989
           0.0775653943         0.0518709794
           0.0862149671         0.0539239645
           0.0952437669         0.0558676124
           0.1046400070         0.0577010140
           0.1143918261         0.0594232343
           0.1244874373         0.0610333197
           0.1349150091         0.0625303537
           0.1456627101         0.0639135316
           0.1567187458         0.0651821420
           0.1680712700         0.0663356557
           0.1797085106         0.0673737451
           0.1916185617         0.0682963133
           0.2037896663         0.0691035166
           0.2162100226         0.0697957948
           0.2288677394         0.0703738555
           0.2417510301         0.0708387494
           0.2548481226         0.0711918026
           0.2681471407         0.0714346990
           0.2816362381         0.0715692788
           0.2953037024         0.0715978071
           0.3091376126         0.0715226978
           0.3231261671         0.0713466778
           0.3372575641         0.0710726306
           0.3515200019         0.0707036406
           0.3659016192         0.0702429488
           0.3803906143         0.0696939528
           0.3949752152         0.0690600947
           0.4096435308         0.0683450103
           0.4243837297         0.0675522685
           0.4391840994         0.0666855723
           0.4540326893         0.0657486096
           0.4689177573         0.0647451058
           0.4838275015         0.0636787415
           0.4987500012         0.0625531897
           0.5136735439         0.0613721125
           0.5285862088         0.0601391830
           0.5434762836         0.0588579327
           0.5583319664         0.0575319268
           0.5731412768         0.0561646670
           0.5878924727         0.0547595806
           0.6025738120         0.0533200763
           0.6171733141         0.0518494844
           0.6316793561         0.0503510684
           0.6460800171         0.0488280356
           0.6603634357         0.0472835079
           0.6745178699         0.0457205437
           0.6885313988         0.0441420861
           0.7023922801         0.0425509587
           0.7160887122         0.0409498513
           0.7296089530         0.0393412896
           0.7429409027         0.0377276614
           0.7560729980         0.0361111350
           0.7689932585         0.0344937332
           0.7816900015         0.0328772962
           0.7941513062         0.0312636197
           0.8063654900         0.0296543539
           0.8183205128         0.0280513149
           0.8300047517         0.0264563728
           0.8414062858         0.0248716902
           0.8525132537         0.0232997891
           0.8633139729         0.0217436031
           0.8737965226         0.0202065520
           0.8839492202         0.0186925419
           0.8937600255         0.0172060039
           0.9032172561         0.0157516748
           0.9123090506         0.0143345939
           0.9210236073         0.0129599562
           0.9293491244         0.0116328867
           0.9372738004         0.0103584081
           0.9447857141         0.0091412393
           0.9518731236         0.0079857372
           0.9585241675         0.0068958672
           0.9647270441         0.0058751949
           0.9704700112         0.0049268710
           0.9757411480         0.0040538372
           0.9805286527         0.0032587238
           0.9848207235         0.0025440590
           0.9886054993         0.0019123338
           0.9918712378         0.0013659595
           0.9946060777         0.0009074112
           0.9967982173         0.0005391221
           0.9984357953         0.0002635434
           0.9995069504         0.0000830603
           1.0000000000        -0.0000000714
